TITLE = "Visualization of the solution"
VARIABLES = "x","y","z","Density_0","Density_1","Momentum_x","Momentum_y","Momentum_z","Energy","Energy_ve","MassFrac_0","MassFrac_1","Pressure","Temperature_tr","Temperature_ve","Mach","Pressure_Coefficient"
ZONE NODES= 12285, ELEMENTS= 7936, DATAPACKING=POINT, ZONETYPE=FEBRICK
-4.999214e-02	2.659750e-03	0.000000e+00	2.615792e-04	2.618411e-07	2.034311e+00	-1.583478e-15	1.475011e-15	7.960700e+03	4.131144e-04	9.990000e-01	1.000000e-03	1.975940e+01	2.540000e+02	2.540350e+02	2.390000e+01	-7.358837e-13	
-4.973899e-02	1.532448e-02	0.000000e+00	2.615792e-04	2.618411e-07	2.034311e+00	-1.392561e-15	-6.478279e-17	7.960700e+03	4.131144e-04	9.990000e-01	1.000000e-03	1.975940e+01	2.540000e+02	2.540350e+02	2.390000e+01	1.292772e-14	
-4.912947e-02	2.797706e-02	0.000000e+00	2.615792e-04	2.618411e-07	2.034311e+00	8.922631e-17	2.461233e-18	7.960700e+03	4.131144e-04	9.990000e-01	1.000000e-03	1.975940e+01	2.540000e+02	2.540350e+02	2.390000e+01	1.338807e-14	
-4.816407e-02	4.060748e-02	0.000000e+00	2.615792e-04	2.618411e-07	2.034311e+00	1.316160e-16	5.133898e-18	7.960700e+03	4.131144e-04	9.990000e-01	1.000000e-03	1.975940e+01	2.540000e+02	2.540350e+02	2.390000e+01	1.357105e-14	
-4.684354e-02	5.320572e-02	0.000000e+00	2.615792e-04	2.618411e-07	2.034311e+00	1.753756e-16	7.144344e-18	7.960700e+03	4.131144e-04	9.990000e-01	1.000000e-03	1.975940e+01	2.540000e+02	2.540350e+02	2.390000e+01	1.380032e-14	
-4.516894e-02	6.576179e-02	0.000000e+00	2.615792e-04	2.618411e-07	2.034311e+00	2.216382e-16	9.206351e-18	7.960700e+03	4.131144e-04	9.990000e-01	1.000000e-03	1.975940e+01	2.540000e+02	2.540350e+02	2.390000e+01	1.412176e-14	
-4.314159e-02	7.826576e-02	0.000000e+00	2.615792e-04	2.618411e-07	2.034311e+00	2.710580e-16	1.149132e-17	7.960700e+03	4.131144e-04	9.990000e-01	1.000000e-03	1.975940e+01	2.540000e+02	2.540350e+02	2.390000e+01	1.444231e-14	
-4.076310e-02	9.070772e-02	0.000000e+00	2.615792e-04	2.618411e-07	2.034311e+00	3.245949e-16	1.386438e-17	7.960700e+03	4.131144e-04	9.990000e-01	1.000000e-03	1.975940e+01	2.540000e+02	2.540350e+02	2.390000e+01	1.485501e-14	
-3.803535e-02	1.030778e-01	0.000000e+00	2.615792e-04	2.618411e-07	2.034311e+00	3.832641e-16	1.654874e-17	7.960700e+03	4.131144e-04	9.990000e-01	1.000000e-03	1.975940e+01	2.540000e+02	2.540350e+02	2.390000e+01	1.549699e-14	
-3.496051e-02	1.153662e-01	0.000000e+00	2.615792e-04	2.618411e-07	2.034311e+00	4.475782e-16	1.926454e-17	7.960700e+03	4.131144e-04	9.990000e-01	1.000000e-03	1.975940e+01	2.540000e+02	2.540350e+02	2.390000e+01	1.604726e-14	
-3.154100e-02	1.275632e-01	0.000000e+00	2.615792e-04	2.618411e-07	2.034311e+00	5.183738e-16	2.240498e-17	7.960700e+03	4.131144e-04	9.990000e-01	1.000000e-03	1.975940e+01	2.540000e+02	2.540350e+02	2.390000e+01	1.682815e-14	
-2.777955e-02	1.396591e-01	0.000000e+00	2.615792e-04	2.618411e-07	2.034311e+00	5.962534e-16	2.600007e-17	7.960700e+03	4.131144e-04	9.990000e-01	1.000000e-03	1.975940e+01	2.540000e+02	2.540350e+02	2.390000e+01	1.765355e-14	
-2.367913e-02	1.516443e-01	0.000000e+00	2.615792e-04	2.618411e-07	2.034311e+00	6.826324e-16	2.981846e-17	7.960700e+03	4.131144e-04	9.990000e-01	1.000000e-03	1.975940e+01	2.540000e+02	2.540350e+02	2.390000e+01	1.847941e-14	
-1.924298e-02	1.635094e-01	0.000000e+00	2.615792e-04	2.618411e-07	2.034311e+00	7.790474e-16	3.400650e-17	7.960700e+03	4.131144e-04	9.990000e-01	1.000000e-03	1.975940e+01	2.540000e+02	2.540350e+02	2.390000e+01	1.953454e-14	
-1.447464e-02	1.752449e-01	0.000000e+00	2.615792e-04	2.618411e-07	2.034311e+00	8.854274e-16	3.879564e-17	7.960700e+03	4.131144e-04	9.990000e-01	1.000000e-03	1.975940e+01	2.540000e+02	2.540350e+02	2.390000e+01	2.040490e-14	
-9.377862e-03	1.868416e-01	0.000000e+00	2.615792e-04	2.618411e-07	2.034311e+00	1.002018e-15	4.371339e-17	7.960700e+03	4.131144e-04	9.990000e-01	1.000000e-03	1.975940e+01	2.540000e+02	2.540350e+02	2.390000e+01	2.146003e-14	
-3.956700e-03	1.982902e-01	0.000000e+00	2.615792e-04	2.618411e-07	2.034311e+00	1.134745e-15	4.929261e-17	7.960700e+03	4.131144e-04	9.990000e-01	1.000000e-03	1.975940e+01	2.540000e+02	2.540350e+02	2.390000e+01	2.265228e-14	
1.784554e-03	2.095816e-01	0.000000e+00	2.615792e-04	2.618411e-07	2.034311e+00	1.279551e-15	5.547946e-17	7.960700e+03	4.131144e-04	9.990000e-01	1.000000e-03	1.975940e+01	2.540000e+02	2.540350e+02	2.390000e+01	2.389083e-14	
7.841350e-03	2.207070e-01	0.000000e+00	2.615792e-04	2.618411e-07	2.034311e+00	1.441229e-15	6.266601e-17	7.960700e+03	4.131144e-04	9.990000e-01	1.000000e-03	1.975940e+01	2.540000e+02	2.540350e+02	2.390000e+01	2.535822e-14	
1.420889e-02	2.316575e-01	0.000000e+00	2.615792e-04	2.618411e-07	2.034311e+00	1.622027e-15	7.070251e-17	7.960700e+03	4.131144e-04	9.990000e-01	1.000000e-03	1.975940e+01	2.540000e+02	2.540350e+02	2.390000e+01	2.705578e-14	
2.088213e-02	2.424245e-01	0.000000e+00	2.615792e-04	2.618411e-07	2.034311e+00	1.820956e-15	7.930287e-17	7.960700e+03	4.131144e-04	9.990000e-01	1.000000e-03	1.975940e+01	2.540000e+02	2.540350e+02	2.390000e+01	2.861532e-14	
2.785578e-02	2.529994e-01	0.000000e+00	2.615792e-04	2.618411e-07	2.034311e+00	2.043573e-15	8.904024e-17	7.960700e+03	4.131144e-04	9.990000e-01	1.000000e-03	1.975940e+01	2.540000e+02	2.540350e+02	2.390000e+01	3.031198e-14	
3.512431e-02	2.633737e-01	0.000000e+00	2.615792e-04	2.618411e-07	2.034311e+00	2.289995e-15	9.982575e-17	7.960700e+03	4.131144e-04	9.990000e-01	1.000000e-03	1.975940e+01	2.540000e+02	2.540350e+02	2.390000e+01	3.214666e-14	
4.268196e-02	2.735394e-01	0.000000e+00	2.615792e-04	2.618411e-07	2.034311e+00	2.562278e-15	1.117810e-16	7.960700e+03	4.131144e-04	9.990000e-01	1.000000e-03	1.975940e+01	2.540000e+02	2.540350e+02	2.390000e+01	3.407260e-14	
5.052276e-02	2.834884e-01	0.000000e+00	2.615792e-04	2.618411e-07	2.034311e+00	2.866193e-15	1.251602e-16	7.960700e+03	4.131144e-04	9.990000e-01	1.000000e-03	1.975940e+01	2.540000e+02	2.540350e+02	2.390000e+01	3.641304e-14	
5.864047e-02	2.932127e-01	0.000000e+00	2.615792e-04	2.618411e-07	2.034311e+00	3.201526e-15	1.393929e-16	7.960700e+03	4.131144e-04	9.990000e-01	1.000000e-03	1.975940e+01	2.540000e+02	2.540350e+02	2.390000e+01	3.861367e-14	
6.702868e-02	3.027046e-01	0.000000e+00	2.615792e-04	2.618411e-07	2.034311e+00	3.578214e-15	1.560043e-16	7.960700e+03	4.131144e-04	9.990000e-01	1.000000e-03	1.975940e+01	2.540000e+02	2.540350e+02	2.390000e+01	4.104492e-14	
7.568073e-02	3.119567e-01	0.000000e+00	2.615792e-04	2.618411e-07	2.034311e+00	3.993918e-15	1.744033e-16	7.960700e+03	4.131144e-04	9.990000e-01	1.000000e-03	1.975940e+01	2.540000e+02	2.540350e+02	2.390000e+01	4.388932e-14	
8.458977e-02	3.209617e-01	0.000000e+00	2.615792e-04	2.618411e-07	2.034311e+00	4.457459e-15	1.943669e-16	7.960700e+03	4.131144e-04	9.990000e-01	1.000000e-03	1.975940e+01	2.540000e+02	2.540350e+02	2.390000e+01	4.650220e-14	
9.374873e-02	3.297122e-01	0.000000e+00	2.615792e-04	2.618411e-07	2.034311e+00	4.975660e-15	2.168711e-16	7.960700e+03	4.131144e-04	9.990000e-01	1.000000e-03	1.975940e+01	2.540000e+02	2.540350e+02	2.390000e+01	4.952958e-14	
1.031504e-01	3.382016e-01	0.000000e+00	2.615792e-04	2.618411e-07	2.034311e+00	5.549352e-15	2.416947e-16	7.960700e+03	4.131144e-04	9.990000e-01	1.000000e-03	1.975940e+01	2.540000e+02	2.540350e+02	2.390000e+01	5.283209e-14	
1.127872e-01	3.464229e-01	0.000000e+00	2.615792e-04	2.618411e-07	2.034311e+00	5.579296e-15	2.429982e-16	7.960700e+03	4.131144e-04	9.990000e-01	1.000000e-03	1.975940e+01	2.540000e+02	2.540350e+02	2.390000e+01	5.329064e-14	
1.180018e-01	3.506808e-01	0.000000e+00	2.615792e-04	2.618411e-07	2.034311e+00	5.262066e-15	2.292992e-16	7.960700e+03	4.131144e-04	9.990000e-01	1.000000e-03	1.975940e+01	2.540000e+02	2.540350e+02	2.390000e+01	5.237353e-14	
1.233572e-01	3.549208e-01	0.000000e+00	2.615792e-04	2.618411e-07	2.034311e+00	5.616021e-15	2.447195e-16	7.960700e+03	4.131144e-04	9.990000e-01	1.000000e-03	1.975940e+01	2.540000e+02	2.540350e+02	2.390000e+01	5.466766e-14	
1.289348e-01	3.591987e-01	0.000000e+00	2.615792e-04	2.618411e-07	2.034311e+00	6.074668e-15	2.645517e-16	7.960700e+03	4.131144e-04	9.990000e-01	1.000000e-03	1.975940e+01	2.540000e+02	2.540350e+02	2.390000e+01	5.728144e-14	
1.348221e-01	3.635666e-01	0.000000e+00	2.615792e-04	2.618411e-07	2.034311e+00	6.635126e-15	2.893437e-16	7.960700e+03	4.131144e-04	9.990000e-01	1.000000e-03	1.975940e+01	2.540000e+02	2.540350e+02	2.390000e+01	6.049224e-14	
1.411139e-01	3.680733e-01	0.000000e+00	2.615792e-04	2.618411e-07	2.034311e+00	7.305661e-15	3.182333e-16	7.960700e+03	4.131144e-04	9.990000e-01	1.000000e-03	1.975940e+01	2.540000e+02	2.540350e+02	2.390000e+01	6.388556e-14	
1.479145e-01	3.727639e-01	0.000000e+00	2.615792e-04	2.618411e-07	2.034311e+00	8.114075e-15	3.536974e-16	7.960700e+03	4.131144e-04	9.990000e-01	1.000000e-03	1.975940e+01	2.540000e+02	2.540350e+02	2.390000e+01	6.773834e-14	
1.553395e-01	3.776788e-01	0.000000e+00	2.615792e-04	2.618411e-07	2.034311e+00	9.092864e-15	3.962262e-16	7.960700e+03	4.131144e-04	9.990000e-01	1.000000e-03	1.975940e+01	2.540000e+02	2.540350e+02	2.390000e+01	7.237112e-14	
1.635178e-01	3.828527e-01	0.000000e+00	2.615792e-04	2.618411e-07	2.034311e+00	1.028964e-14	4.479071e-16	7.960700e+03	4.131144e-04	9.990000e-01	1.000000e-03	1.975940e+01	2.540000e+02	2.540350e+02	2.390000e+01	7.746201e-14	
1.725946e-01	3.883127e-01	0.000000e+00	2.615792e-04	2.618411e-07	2.034311e+00	1.176673e-14	5.122387e-16	7.960700e+03	4.131144e-04	9.990000e-01	1.000000e-03	1.975940e+01	2.540000e+02	2.540350e+02	2.390000e+01	8.370018e-14	
1.827338e-01	3.940754e-01	0.000000e+00	2.615792e-04	2.618411e-07	2.034311e+00	1.361278e-14	5.928072e-16	7.960700e+03	4.131144e-04	9.990000e-01	1.000000e-03	1.975940e+01	2.540000e+02	2.540350e+02	2.390000e+01	9.076376e-14	
1.941214e-01	4.001425e-01	0.000000e+00	2.615792e-04	2.618411e-07	2.034311e+00	1.596447e-14	6.950435e-16	7.960700e+03	4.131144e-04	9.990000e-01	1.000000e-03	1.975940e+01	2.540000e+02	2.540350e+02	2.390000e+01	9.897328e-14	
2.069687e-01	4.064959e-01	0.000000e+00	2.615792e-04	2.618411e-07	2.034311e+00	1.903474e-14	8.286754e-16	7.960700e+03	4.131144e-04	9.990000e-01	1.000000e-03	1.975940e+01	2.540000e+02	2.540350e+02	2.390000e+01	1.087428e-13	
2.215156e-01	4.130900e-01	0.000000e+00	2.615792e-04	2.618411e-07	2.034311e+00	2.316575e-14	1.007964e-15	7.960700e+03	4.131144e-04	9.990000e-01	1.000000e-03	1.975940e+01	2.540000e+02	2.540350e+02	2.390000e+01	1.207606e-13	
2.380337e-01	4.198415e-01	0.000000e+00	2.615792e-04	2.618411e-07	2.034311e+00	2.893956e-14	1.258032e-15	7.960700e+03	4.131144e-04	9.990000e-01	1.000000e-03	1.975940e+01	2.540000e+02	2.540350e+02	2.390000e+01	1.356201e-13	
2.568283e-01	4.266168e-01	0.000000e+00	2.615792e-04	2.618411e-07	2.034311e+00	3.743613e-14	1.625762e-15	7.960700e+03	4.131144e-04	9.990000e-01	1.000000e-03	1.975940e+01	2.540000e+02	2.540350e+02	2.390000e+01	1.547914e-13	
2.782398e-01	4.332141e-01	0.000000e+00	2.615792e-04	2.618411e-07	2.034311e+00	5.083502e-14	2.204388e-15	7.960700e+03	4.131144e-04	9.990000e-01	1.000000e-03	1.975940e+01	2.540000e+02	2.540350e+02	2.390000e+01	1.809359e-13	
3.026409e-01	4.393418e-01	0.000000e+00	2.615792e-04	2.618411e-07	2.034311e+00	7.388158e-14	3.202466e-15	7.960700e+03	4.131144e-04	9.990000e-01	1.000000e-03	1.975940e+01	2.540000e+02	2.540350e+02	2.390000e+01	2.182701e-13	
3.304230e-01	4.446299e-01	0.000000e+00	2.615792e-04	2.618411e-07	2.034311e+00	8.828053e-14	3.827452e-15	7.960700e+03	4.131144e-04	9.990000e-01	1.000000e-03	1.975940e+01	2.540000e+02	2.540350e+02	2.390000e+01	2.385433e-13	
3.615793e-01	4.511073e-01	0.000000e+00	2.615792e-04	2.618411e-07	2.034311e+00	8.854889e-14	3.839358e-15	7.960700e+03	4.131144e-04	9.990000e-01	1.000000e-03	1.975940e+01	2.540000e+02	2.540350e+02	2.390000e+01	2.394150e-13	
3.966550e-01	4.583996e-01	0.000000e+00	2.615792e-04	2.618411e-07	2.034311e+00	9.261666e-14	4.015712e-15	7.960700e+03	4.131144e-04	9.990000e-01	1.000000e-03	1.975940e+01	2.540000e+02	2.540350e+02	2.390000e+01	2.458366e-13	
4.361634e-01	4.666134e-01	0.000000e+00	2.615792e-04	2.618411e-07	2.034311e+00	9.675778e-14	4.195230e-15	7.960700e+03	4.131144e-04	9.990000e-01	1.000000e-03	1.975940e+01	2.540000e+02	2.540350e+02	2.390000e+01	2.520739e-13	
4.806829e-01	4.758690e-01	0.000000e+00	2.615792e-04	2.618411e-07	2.034311e+00	1.008249e-13	4.371020e-15	7.960700e+03	4.131144e-04	9.990000e-01	1.000000e-03	1.975940e+01	2.540000e+02	2.540350e+02	2.390000e+01	2.585413e-13	
5.308651e-01	4.863019e-01	0.000000e+00	2.615792e-04	2.618411e-07	2.034311e+00	1.048452e-13	4.546855e-15	7.960700e+03	4.131144e-04	9.990000e-01	1.000000e-03	1.975940e+01	2.540000e+02	2.540350e+02	2.390000e+01	2.647786e-13	
5.874446e-01	4.980648e-01	0.000000e+00	2.615792e-04	2.618411e-07	2.034311e+00	1.088255e-13	4.718423e-15	7.960700e+03	4.131144e-04	9.990000e-01	1.000000e-03	1.975940e+01	2.540000e+02	2.540350e+02	2.390000e+01	2.711543e-13	
6.512496e-01	5.113299e-01	0.000000e+00	2.615792e-04	2.618411e-07	2.034311e+00	1.127885e-13	4.889285e-15	7.960700e+03	4.131144e-04	9.990000e-01	1.000000e-03	1.975940e+01	2.540000e+02	2.540350e+02	2.390000e+01	2.776213e-13	
7.232141e-01	5.262913e-01	0.000000e+00	2.615792e-04	2.618411e-07	2.034311e+00	1.167685e-13	5.064363e-15	7.960700e+03	4.131144e-04	9.990000e-01	1.000000e-03	1.975940e+01	2.540000e+02	2.540350e+02	2.390000e+01	2.841796e-13	
8.043916e-01	5.431681e-01	0.000000e+00	2.615792e-04	2.618411e-07	2.034311e+00	1.208052e-13	5.241272e-15	7.960700e+03	4.131144e-04	9.990000e-01	1.000000e-03	1.975940e+01	2.540000e+02	2.540350e+02	2.390000e+01	2.912441e-13	
8.959702e-01	5.622074e-01	0.000000e+00	2.615792e-04	2.618411e-07	2.034311e+00	1.249363e-13	5.422489e-15	7.960700e+03	4.131144e-04	9.990000e-01	1.000000e-03	1.975940e+01	2.540000e+02	2.540350e+02	2.390000e+01	2.984439e-13	
9.992905e-01	5.836877e-01	0.000000e+00	2.615792e-04	2.618411e-07	2.034311e+00	1.291892e-13	5.606793e-15	7.960700e+03	4.131144e-04	9.990000e-01	1.000000e-03	1.975940e+01	2.540000e+02	2.540350e+02	2.390000e+01	3.062884e-13	
1.115865e+00	6.079236e-01	0.000000e+00	2.615792e-04	2.618411e-07	2.034311e+00	1.336297e-13	5.800815e-15	7.960700e+03	4.131144e-04	9.990000e-01	1.000000e-03	1.975940e+01	2.540000e+02	2.540350e+02	2.390000e+01	3.144974e-13	
1.247400e+00	6.352697e-01	0.000000e+00	2.615792e-04	2.618411e-07	2.034311e+00	1.213914e-13	5.273274e-15	7.960700e+03	4.131144e-04	9.990000e-01	1.000000e-03	1.975940e+01	2.540000e+02	2.540350e+02	2.390000e+01	3.019307e-13	
1.248144e+00	6.305822e-01	0.000000e+00	2.615792e-04	2.618411e-07	2.034311e+00	1.014270e-13	4.238691e-15	7.960700e+03	4.131144e-04	9.990000e-01	1.000000e-03	1.975940e+01	2.540000e+02	2.540350e+02	2.390000e+01	5.587331e-13	
1.248887e+00	6.258947e-01	0.000000e+00	2.615792e-04	2.618411e-07	2.034311e+00	1.488174e-14	4.236630e-16	7.960700e+03	4.131144e-04	9.990000e-01	1.000000e-03	1.975940e+01	2.540000e+02	2.540350e+02	2.390000e+01	5.785459e-13	
1.249631e+00	6.212072e-01	0.000000e+00	2.615792e-04	2.618411e-07	2.034311e+00	2.304157e-15	-1.362128e-16	7.960700e+03	4.131144e-04	9.990000e-01	1.000000e-03	1.975940e+01	2.540000e+02	2.540350e+02	2.390000e+01	5.811602e-13	
1.250375e+00	6.165197e-01	0.000000e+00	2.615792e-04	2.618411e-07	2.034311e+00	8.856385e-16	-2.034415e-16	7.960700e+03	4.131144e-04	9.990000e-01	1.000000e-03	1.975940e+01	2.540000e+02	2.540350e+02	2.390000e+01	5.826284e-13	
1.251119e+00	6.118322e-01	0.000000e+00	2.615792e-04	2.618411e-07	2.034311e+00	7.614224e-16	-2.149906e-16	7.960700e+03	4.131144e-04	9.990000e-01	1.000000e-03	1.975940e+01	2.540000e+02	2.540350e+02	2.390000e+01	5.839587e-13	
1.251863e+00	6.071447e-01	0.000000e+00	2.615792e-04	2.618411e-07	2.034311e+00	7.515112e-16	-2.206124e-16	7.960700e+03	4.131144e-04	9.990000e-01	1.000000e-03	1.975940e+01	2.540000e+02	2.540350e+02	2.390000e+01	5.851509e-13	
1.252606e+00	6.024572e-01	0.000000e+00	2.615792e-04	2.618411e-07	2.034311e+00	7.466464e-16	-2.259816e-16	7.960700e+03	4.131144e-04	9.990000e-01	1.000000e-03	1.975940e+01	2.540000e+02	2.540350e+02	2.390000e+01	5.865275e-13	
1.253350e+00	5.977697e-01	0.000000e+00	2.615792e-04	2.618411e-07	2.034311e+00	7.632849e-16	-2.316803e-16	7.960700e+03	4.131144e-04	9.990000e-01	1.000000e-03	1.975940e+01	2.540000e+02	2.540350e+02	2.390000e+01	5.876739e-13	
1.254094e+00	5.930822e-01	0.000000e+00	2.615792e-04	2.618411e-07	2.034311e+00	7.542103e-16	-2.381562e-16	7.960700e+03	4.131144e-04	9.990000e-01	1.000000e-03	1.975940e+01	2.540000e+02	2.540350e+02	2.390000e+01	5.888657e-13	
1.254838e+00	5.883947e-01	0.000000e+00	2.615792e-04	2.618411e-07	2.034311e+00	7.687368e-16	-2.436423e-16	7.960700e+03	4.131144e-04	9.990000e-01	1.000000e-03	1.975940e+01	2.540000e+02	2.540350e+02	2.390000e+01	5.901960e-13	
1.255581e+00	5.837072e-01	0.000000e+00	2.615792e-04	2.618411e-07	2.034311e+00	7.702746e-16	-2.538626e-16	7.960700e+03	4.131144e-04	9.990000e-01	1.000000e-03	1.975940e+01	2.540000e+02	2.540350e+02	2.390000e+01	5.914799e-13	
1.256325e+00	5.790197e-01	0.000000e+00	2.615792e-04	2.618411e-07	2.034311e+00	7.767931e-16	-2.527352e-16	7.960700e+03	4.131144e-04	9.990000e-01	1.000000e-03	1.975940e+01	2.540000e+02	2.540350e+02	2.390000e+01	5.928111e-13	
1.257069e+00	5.743322e-01	0.000000e+00	2.615792e-04	2.618411e-07	2.034311e+00	7.816568e-16	-2.650972e-16	7.960700e+03	4.131144e-04	9.990000e-01	1.000000e-03	1.975940e+01	2.540000e+02	2.540350e+02	2.390000e+01	5.940492e-13	
1.257812e+00	5.696447e-01	0.000000e+00	2.615792e-04	2.618411e-07	2.034311e+00	7.792670e-16	-2.692187e-16	7.960700e+03	4.131144e-04	9.990000e-01	1.000000e-03	1.975940e+01	2.540000e+02	2.540350e+02	2.390000e+01	5.953327e-13	
1.258556e+00	5.649572e-01	0.000000e+00	2.615792e-04	2.618411e-07	2.034311e+00	7.909776e-16	-2.760833e-16	7.960700e+03	4.131144e-04	9.990000e-01	1.000000e-03	1.975940e+01	2.540000e+02	2.540350e+02	2.390000e+01	5.966634e-13	
1.259300e+00	5.602697e-01	0.000000e+00	2.615792e-04	2.618411e-07	2.034311e+00	7.956012e-16	-2.831592e-16	7.960700e+03	4.131144e-04	9.990000e-01	1.000000e-03	1.975940e+01	2.540000e+02	2.540350e+02	2.390000e+01	5.981317e-13	
1.260044e+00	5.555822e-01	0.000000e+00	2.615792e-04	2.618411e-07	2.034311e+00	7.921834e-16	-2.898741e-16	7.960700e+03	4.131144e-04	9.990000e-01	1.000000e-03	1.975940e+01	2.540000e+02	2.540350e+02	2.390000e+01	5.991401e-13	
1.260787e+00	5.508947e-01	0.000000e+00	2.615792e-04	2.618411e-07	2.034311e+00	8.021144e-16	-3.007952e-16	7.960700e+03	4.131144e-04	9.990000e-01	1.000000e-03	1.975940e+01	2.540000e+02	2.540350e+02	2.390000e+01	6.005162e-13	
1.261531e+00	5.462072e-01	0.000000e+00	2.615792e-04	2.618411e-07	2.034311e+00	8.044672e-16	-3.069564e-16	7.960700e+03	4.131144e-04	9.990000e-01	1.000000e-03	1.975940e+01	2.540000e+02	2.540350e+02	2.390000e+01	6.017076e-13	
1.262275e+00	5.415197e-01	0.000000e+00	2.615792e-04	2.618411e-07	2.034311e+00	8.159285e-16	-3.110719e-16	7.960700e+03	4.131144e-04	9.990000e-01	1.000000e-03	1.975940e+01	2.540000e+02	2.540350e+02	2.390000e+01	6.032222e-13	
1.263019e+00	5.368322e-01	0.000000e+00	2.615792e-04	2.618411e-07	2.034311e+00	8.192283e-16	-3.227646e-16	7.960700e+03	4.131144e-04	9.990000e-01	1.000000e-03	1.975940e+01	2.540000e+02	2.540350e+02	2.390000e+01	6.045987e-13	
1.263762e+00	5.321447e-01	0.000000e+00	2.615792e-04	2.618411e-07	2.034311e+00	8.167035e-16	-3.338958e-16	7.960700e+03	4.131144e-04	9.990000e-01	1.000000e-03	1.975940e+01	2.540000e+02	2.540350e+02	2.390000e+01	6.058831e-13	
1.264506e+00	5.274572e-01	0.000000e+00	2.615792e-04	2.618411e-07	2.034311e+00	8.239177e-16	-3.392615e-16	7.960700e+03	4.131144e-04	9.990000e-01	1.000000e-03	1.975940e+01	2.540000e+02	2.540350e+02	2.390000e+01	6.070749e-13	
1.265250e+00	5.227697e-01	0.000000e+00	2.615792e-04	2.618411e-07	2.034311e+00	8.253976e-16	-3.516142e-16	7.960700e+03	4.131144e-04	9.990000e-01	1.000000e-03	1.975940e+01	2.540000e+02	2.540350e+02	2.390000e+01	6.084511e-13	
1.265994e+00	5.180822e-01	0.000000e+00	2.615792e-04	2.618411e-07	2.034311e+00	8.468497e-16	-3.548908e-16	7.960700e+03	4.131144e-04	9.990000e-01	1.000000e-03	1.975940e+01	2.540000e+02	2.540350e+02	2.390000e+01	6.098276e-13	
1.266738e+00	5.133947e-01	0.000000e+00	2.615792e-04	2.618411e-07	2.034311e+00	8.306313e-16	-3.698749e-16	7.960700e+03	4.131144e-04	9.990000e-01	1.000000e-03	1.975940e+01	2.540000e+02	2.540350e+02	2.390000e+01	6.111579e-13	
1.267481e+00	5.087072e-01	0.000000e+00	2.615792e-04	2.618411e-07	2.034311e+00	8.422458e-16	-3.784001e-16	7.960700e+03	4.131144e-04	9.990000e-01	1.000000e-03	1.975940e+01	2.540000e+02	2.540350e+02	2.390000e+01	6.123492e-13	
1.268225e+00	5.040197e-01	0.000000e+00	2.615792e-04	2.618411e-07	2.034311e+00	8.526694e-16	-3.875338e-16	7.960700e+03	4.131144e-04	9.990000e-01	1.000000e-03	1.975940e+01	2.540000e+02	2.540350e+02	2.390000e+01	6.137717e-13	
1.268969e+00	4.993322e-01	0.000000e+00	2.615792e-04	2.618411e-07	2.034311e+00	8.475211e-16	-4.028684e-16	7.960700e+03	4.131144e-04	9.990000e-01	1.000000e-03	1.975940e+01	2.540000e+02	2.540350e+02	2.390000e+01	6.150093e-13	
1.269713e+00	4.946447e-01	0.000000e+00	2.615792e-04	2.618411e-07	2.034311e+00	8.546756e-16	-4.104939e-16	7.960700e+03	4.131144e-04	9.990000e-01	1.000000e-03	1.975940e+01	2.540000e+02	2.540350e+02	2.390000e+01	6.163400e-13	
1.270456e+00	4.899572e-01	0.000000e+00	2.615792e-04	2.618411e-07	2.034311e+00	8.671241e-16	-4.206803e-16	7.960700e+03	4.131144e-04	9.990000e-01	1.000000e-03	1.975940e+01	2.540000e+02	2.540350e+02	2.390000e+01	6.177616e-13	
1.271200e+00	4.852697e-01	0.000000e+00	2.615792e-04	2.618411e-07	2.034311e+00	8.615550e-16	-4.354372e-16	7.960700e+03	4.131144e-04	9.990000e-01	1.000000e-03	1.975940e+01	2.540000e+02	2.540350e+02	2.390000e+01	6.190914e-13	
1.271944e+00	4.805822e-01	0.000000e+00	2.615792e-04	2.618411e-07	2.034311e+00	8.728414e-16	-4.453285e-16	7.960700e+03	4.131144e-04	9.990000e-01	1.000000e-03	1.975940e+01	2.540000e+02	2.540350e+02	2.390000e+01	6.203758e-13	
1.272687e+00	4.758947e-01	0.000000e+00	2.615792e-04	2.618411e-07	2.034311e+00	8.870605e-16	-4.592370e-16	7.960700e+03	4.131144e-04	9.990000e-01	1.000000e-03	1.975940e+01	2.540000e+02	2.540350e+02	2.390000e+01	6.218436e-13	
1.273431e+00	4.712072e-01	0.000000e+00	2.615792e-04	2.618411e-07	2.034311e+00	8.695240e-16	-4.716338e-16	7.960700e+03	4.131144e-04	9.990000e-01	1.000000e-03	1.975940e+01	2.540000e+02	2.540350e+02	2.390000e+01	6.231289e-13	
1.274175e+00	4.665197e-01	0.000000e+00	2.615792e-04	2.618411e-07	2.034311e+00	8.796300e-16	-4.840385e-16	7.960700e+03	4.131144e-04	9.990000e-01	1.000000e-03	1.975940e+01	2.540000e+02	2.540350e+02	2.390000e+01	6.244578e-13	
1.274919e+00	4.618322e-01	0.000000e+00	2.615792e-04	2.618411e-07	2.034311e+00	8.949710e-16	-5.022753e-16	7.960700e+03	4.131144e-04	9.990000e-01	1.000000e-03	1.975940e+01	2.540000e+02	2.540350e+02	2.390000e+01	6.258340e-13	
1.275662e+00	4.571447e-01	0.000000e+00	2.615792e-04	2.618411e-07	2.034311e+00	8.947818e-16	-5.133312e-16	7.960700e+03	4.131144e-04	9.990000e-01	1.000000e-03	1.975940e+01	2.540000e+02	2.540350e+02	2.390000e+01	6.271638e-13	
1.276406e+00	4.524572e-01	0.000000e+00	2.615792e-04	2.618411e-07	2.034311e+00	8.993166e-16	-5.284918e-16	7.960700e+03	4.131144e-04	9.990000e-01	1.000000e-03	1.975940e+01	2.540000e+02	2.540350e+02	2.390000e+01	6.285867e-13	
1.277150e+00	4.477697e-01	0.000000e+00	2.615792e-04	2.618411e-07	2.034311e+00	9.016142e-16	-5.463293e-16	7.960700e+03	4.131144e-04	9.990000e-01	1.000000e-03	1.975940e+01	2.540000e+02	2.540350e+02	2.390000e+01	6.299165e-13	
1.277894e+00	4.430822e-01	0.000000e+00	2.615792e-04	2.618411e-07	2.034311e+00	9.023283e-16	-5.646223e-16	7.960700e+03	4.131144e-04	9.990000e-01	1.000000e-03	1.975940e+01	2.540000e+02	2.540350e+02	2.390000e+01	6.312926e-13	
1.278638e+00	4.383947e-01	0.000000e+00	2.615792e-04	2.618411e-07	2.034311e+00	9.149448e-16	-5.787062e-16	7.960700e+03	4.131144e-04	9.990000e-01	1.000000e-03	1.975940e+01	2.540000e+02	2.540350e+02	2.390000e+01	6.325761e-13	
1.279381e+00	4.337072e-01	0.000000e+00	2.615792e-04	2.618411e-07	2.034311e+00	9.125413e-16	-5.972082e-16	7.960700e+03	4.131144e-04	9.990000e-01	1.000000e-03	1.975940e+01	2.540000e+02	2.540350e+02	2.390000e+01	6.338601e-13	
1.280125e+00	4.290197e-01	0.000000e+00	2.615792e-04	2.618411e-07	2.034311e+00	9.236672e-16	-6.132282e-16	7.960700e+03	4.131144e-04	9.990000e-01	1.000000e-03	1.975940e+01	2.540000e+02	2.540350e+02	2.390000e+01	6.353747e-13	
1.280869e+00	4.243322e-01	0.000000e+00	2.615792e-04	2.618411e-07	2.034311e+00	9.183073e-16	-6.310957e-16	7.960700e+03	4.131144e-04	9.990000e-01	1.000000e-03	1.975940e+01	2.540000e+02	2.540350e+02	2.390000e+01	6.365660e-13	
1.281613e+00	4.196447e-01	0.000000e+00	2.615792e-04	2.618411e-07	2.034311e+00	9.279187e-16	-6.510854e-16	7.960700e+03	4.131144e-04	9.990000e-01	1.000000e-03	1.975940e+01	2.540000e+02	2.540350e+02	2.390000e+01	6.379426e-13	
1.282356e+00	4.149572e-01	0.000000e+00	2.615792e-04	2.618411e-07	2.034311e+00	9.374388e-16	-6.752813e-16	7.960700e+03	4.131144e-04	9.990000e-01	1.000000e-03	1.975940e+01	2.540000e+02	2.540350e+02	2.390000e+01	6.393646e-13	
1.283100e+00	4.102697e-01	0.000000e+00	2.615792e-04	2.618411e-07	2.034311e+00	9.307388e-16	-6.936604e-16	7.960700e+03	4.131144e-04	9.990000e-01	1.000000e-03	1.975940e+01	2.540000e+02	2.540350e+02	2.390000e+01	6.407865e-13	
1.283844e+00	4.055822e-01	0.000000e+00	2.615792e-04	2.618411e-07	2.034311e+00	9.372777e-16	-7.173063e-16	7.960700e+03	4.131144e-04	9.990000e-01	1.000000e-03	1.975940e+01	2.540000e+02	2.540350e+02	2.390000e+01	6.420709e-13	
1.284587e+00	4.008947e-01	0.000000e+00	2.615792e-04	2.618411e-07	2.034311e+00	9.446331e-16	-7.334385e-16	7.960700e+03	4.131144e-04	9.990000e-01	1.000000e-03	1.975940e+01	2.540000e+02	2.540350e+02	2.390000e+01	6.433549e-13	
1.285331e+00	3.962072e-01	0.000000e+00	2.615792e-04	2.618411e-07	2.034311e+00	9.471632e-16	-7.624239e-16	7.960700e+03	4.131144e-04	9.990000e-01	1.000000e-03	1.975940e+01	2.540000e+02	2.540350e+02	2.390000e+01	6.447760e-13	
1.286075e+00	3.915197e-01	0.000000e+00	2.615792e-04	2.618411e-07	2.034311e+00	9.490328e-16	-7.891168e-16	7.960700e+03	4.131144e-04	9.990000e-01	1.000000e-03	1.975940e+01	2.540000e+02	2.540350e+02	2.390000e+01	6.460608e-13	
1.286819e+00	3.868322e-01	0.000000e+00	2.615792e-04	2.618411e-07	2.034311e+00	9.504945e-16	-8.116427e-16	7.960700e+03	4.131144e-04	9.990000e-01	1.000000e-03	1.975940e+01	2.540000e+02	2.540350e+02	2.390000e+01	6.474370e-13	
1.287562e+00	3.821447e-01	0.000000e+00	2.615792e-04	2.618411e-07	2.034311e+00	9.640613e-16	-8.430891e-16	7.960700e+03	4.131144e-04	9.990000e-01	1.000000e-03	1.975940e+01	2.540000e+02	2.540350e+02	2.390000e+01	6.488589e-13	
1.288306e+00	3.774572e-01	0.000000e+00	2.615792e-04	2.618411e-07	2.034311e+00	9.610188e-16	-8.681022e-16	7.960700e+03	4.131144e-04	9.990000e-01	1.000000e-03	1.975940e+01	2.540000e+02	2.540350e+02	2.390000e+01	6.501888e-13	
1.289050e+00	3.727697e-01	0.000000e+00	2.615792e-04	2.618411e-07	2.034311e+00	9.588807e-16	-8.981937e-16	7.960700e+03	4.131144e-04	9.990000e-01	1.000000e-03	1.975940e+01	2.540000e+02	2.540350e+02	2.390000e+01	6.515195e-13	
1.289794e+00	3.680822e-01	0.000000e+00	2.615792e-04	2.618411e-07	2.034311e+00	9.690159e-16	-9.264417e-16	7.960700e+03	4.131144e-04	9.990000e-01	1.000000e-03	1.975940e+01	2.540000e+02	2.540350e+02	2.390000e+01	6.528956e-13	
1.290537e+00	3.633947e-01	0.000000e+00	2.615792e-04	2.618411e-07	2.034311e+00	9.669487e-16	-9.608562e-16	7.960700e+03	4.131144e-04	9.990000e-01	1.000000e-03	1.975940e+01	2.540000e+02	2.540350e+02	2.390000e+01	6.540874e-13	
1.291281e+00	3.587072e-01	0.000000e+00	2.615792e-04	2.618411e-07	2.034311e+00	9.732486e-16	-9.924281e-16	7.960700e+03	4.131144e-04	9.990000e-01	1.000000e-03	1.975940e+01	2.540000e+02	2.540350e+02	2.390000e+01	6.553250e-13	
1.292025e+00	3.540197e-01	0.000000e+00	2.615792e-04	2.618411e-07	2.034311e+00	9.690744e-16	-1.033348e-15	7.960700e+03	4.131144e-04	9.990000e-01	1.000000e-03	1.975940e+01	2.540000e+02	2.540350e+02	2.390000e+01	6.566095e-13	
1.292769e+00	3.493322e-01	0.000000e+00	2.615792e-04	2.618411e-07	2.034311e+00	9.814790e-16	-1.058114e-15	7.960700e+03	4.131144e-04	9.990000e-01	1.000000e-03	1.975940e+01	2.540000e+02	2.540350e+02	2.390000e+01	6.580786e-13	
1.293513e+00	3.446447e-01	0.000000e+00	2.615792e-04	2.618411e-07	2.034311e+00	9.716401e-16	-1.100016e-15	7.960700e+03	4.131144e-04	9.990000e-01	1.000000e-03	1.975940e+01	2.540000e+02	2.540350e+02	2.390000e+01	6.594084e-13	
1.294256e+00	3.399572e-01	0.000000e+00	2.615792e-04	2.618411e-07	2.034311e+00	1.013807e-15	-1.132312e-15	7.960700e+03	4.131144e-04	9.990000e-01	1.000000e-03	1.975940e+01	2.540000e+02	2.540350e+02	2.390000e+01	6.608300e-13	
1.295000e+00	3.352697e-01	0.000000e+00	2.811333e-04	2.814147e-07	2.186362e+00	1.415159e-04	6.027178e-06	8.557273e+03	4.440579e-04	9.990000e-01	1.000000e-03	2.189699e+01	2.618999e+02	2.540350e+02	2.353654e+01	2.704942e-04	
1.161892e+00	3.141876e-01	0.000000e+00	2.824703e-04	2.827531e-07	2.196756e+00	1.625349e-04	6.897926e-06	8.598059e+03	4.461739e-04	9.990000e-01	1.000000e-03	2.204870e+01	2.624662e+02	2.540350e+02	2.351110e+01	2.896918e-04	
1.043936e+00	2.955052e-01	0.000000e+00	2.822698e-04	2.825524e-07	2.195197e+00	1.592858e-04	6.744598e-06	8.591942e+03	4.458566e-04	9.990000e-01	1.000000e-03	2.202588e+01	2.623808e+02	2.540350e+02	2.351493e+01	2.868042e-04	
9.394022e-01	2.789486e-01	0.000000e+00	2.820519e-04	2.823342e-07	2.193502e+00	1.557891e-04	6.581287e-06	8.585292e+03	4.455116e-04	9.990000e-01	1.000000e-03	2.200109e+01	2.622880e+02	2.540350e+02	2.351909e+01	2.836674e-04	
8.467574e-01	2.642751e-01	0.000000e+00	2.818152e-04	2.820973e-07	2.191662e+00	1.520352e-04	6.407888e-06	8.578072e+03	4.451370e-04	9.990000e-01	1.000000e-03	2.197420e+01	2.621875e+02	2.540350e+02	2.352361e+01	2.802645e-04	
7.646435e-01	2.512695e-01	0.000000e+00	2.815585e-04	2.818404e-07	2.189667e+00	1.480161e-04	6.224359e-06	8.570242e+03	4.447308e-04	9.990000e-01	1.000000e-03	2.194507e+01	2.620785e+02	2.540350e+02	2.352851e+01	2.765782e-04	
6.918563e-01	2.397412e-01	0.000000e+00	2.812807e-04	2.815623e-07	2.187507e+00	1.437260e-04	6.030736e-06	8.561766e+03	4.442911e-04	9.990000e-01	1.000000e-03	2.191357e+01	2.619608e+02	2.540350e+02	2.353380e+01	2.725917e-04	